22
Properties=species:S:1:pos:R:3 Energy:=T 185.7996884=T pbc="F F F"
Li      -2.56106000      -0.68713000      -0.08484000
N       -1.01455000       1.68243000       0.01772000
S       -1.59301000       3.33432000       0.32951000
S        0.73248000       1.63936000      -0.30879000
O        1.04119000       2.85070000      -1.20299000
O        1.40962000       2.01988000       1.01670000
O       -1.45194000       4.08007000      -1.00624000
O       -0.52892000       4.01303000       1.20661000
F       -3.16421000       3.49426000       0.98560000
F        1.36482000       0.18695000      -0.95328000
C       -2.57445455      -0.40025305       2.70566806
C       -2.49793600       0.84667016       3.46766388
H       -3.14792316      -0.22921191       1.77147427
H       -3.08324300      -1.17572616       3.31441751
H       -1.55011355      -0.74291959       2.45252308
N       -2.43730244       1.83278711       4.07038858
C       -3.27103844      -2.78278194       5.26796274
C       -2.69229191      -3.90000379       6.01507586
H       -2.47111623      -2.06250462       4.99932842
H       -4.03179493      -2.27296093       5.89416737
H       -3.74995021      -3.16451850       4.34292333
N       -2.23469001      -4.78367836       6.60592261
